LAMMPS (23 Oct 2017)
OMP_NUM_THREADS environment is not set. Defaulting to 1 thread. (../comm.cpp:90)
  using 1 OpenMP thread(s) per MPI task
 # Input file for uniaxial tensile loading of single crystal aluminum
# Mark Tschopp, November 2010

# ------------------------ INITIALIZATION ----------------------------
units 		metal
dimension	3
boundary	p	p	p
atom_style	atomic
variable latparam equal 4.05

# ----------------------- ATOM DEFINITION ----------------------------
lattice		fcc ${latparam}
lattice		fcc 4.05
Lattice spacing in x,y,z = 4.05 4.05 4.05
region		whole block 0 10 0 10 0 10
create_box	1 whole
Created orthogonal box = (0 0 0) to (40.5 40.5 40.5)
  1 by 1 by 1 MPI processor grid
lattice 	fcc ${latparam} orient x 1 0 0 orient y 0 1 0 orient z 0 0 1
lattice 	fcc 4.05 orient x 1 0 0 orient y 0 1 0 orient z 0 0 1
Lattice spacing in x,y,z = 4.05 4.05 4.05
create_atoms	1 region whole
Created 4000 atoms
  Time spent = 0.000997066 secs

# ------------------------ FORCE FIELDS ------------------------------
pair_style	eam/alloy
pair_coeff	* * AlO.eam.alloy Al
Reading potential file AlO.eam.alloy with DATE: 2015-02-19

# ------------------------- SETTINGS ---------------------------------
compute csym all centro/atom fcc
compute peratom all pe/atom



######################################
# EQUILIBRATION
reset_timestep	0
timestep 0.01
velocity all create 300 12345 mom yes rot no
fix 1 all npt temp 300 300 1 iso 0 0 1 drag 1

# Set thermo output
thermo 10
thermo_style custom step lx ly lz press pxx pyy pzz pe temp

# Run for at least 10 picosecond (assuming 1 fs timestep)
run 1000
Neighbor list info ...
  update every 1 steps, delay 10 steps, check yes
  max neighbors/atom: 2000, page size: 100000
  master list distance cutoff = 10.4147
  ghost atom cutoff = 10.4147
  binsize = 5.20734, bins = 8 8 8
  2 neighbor lists, perpetual/occasional/extra = 1 1 0
  (1) pair eam/alloy, perpetual
      attributes: half, newton on
      pair build: half/bin/atomonly/newton
      stencil: half/bin/3d/newton
      bin: standard
  (2) compute centro/atom, occasional
      attributes: full, newton on
      pair build: full/bin/atomonly
      stencil: full/bin/3d
      bin: standard
Per MPI rank memory allocation (min/avg/max) = 6.883 | 6.883 | 6.883 Mbytes
Step Lx Ly Lz Press Pxx Pyy Pzz PotEng Temp 
       0         40.5         40.5         40.5   -5390.9665   -5440.0996   -5352.4356   -5380.3642    -13678.91          300 
      10     40.51789     40.51789     40.51789   -699.99452    -621.0335   -762.63761   -716.31244   -13591.671    141.28799 
      20    40.479434    40.479434    40.479434    1111.7164    1145.2741    1083.9508    1105.9243   -13597.118    152.86411 
      30    40.516584    40.516584    40.516584   -1490.1426   -1512.4182    -1437.791   -1520.2186   -13602.202    163.41287 
      40     40.48429     40.48429     40.48429    1068.8907    1050.5501    1127.4644    1028.6577    -13593.08    149.11329 
      50    40.512843    40.512843    40.512843   -844.58051   -763.95682   -893.28609   -876.49861   -13596.329    156.62536 
      60    40.491279    40.491279    40.491279    664.24173     701.3944     620.3817    670.94909    -13593.91    154.54966 
      70    40.511141    40.511141    40.511141   -450.00719   -565.20904   -342.09036   -442.72218   -13591.913    152.58888 
      80    40.491996    40.491996    40.491996    530.39262    510.71994    611.24627    469.21163   -13594.752    159.84221 
      90    40.512116    40.512116    40.512116   -529.88635   -480.69656   -464.91933   -644.04317   -13592.774    158.47963 
     100     40.49744     40.49744     40.49744     514.3083    504.63077    515.83832    522.45581   -13590.811    157.13206 
     110    40.510909    40.510909    40.510909   -301.80094     -286.025   -272.08193    -347.2959    -13590.82    159.19406 
     120    40.500024    40.500024    40.500024     475.5516    547.83951    398.05833    480.75697   -13590.052    160.43619 
     130    40.516594    40.516594    40.516594   -350.84661   -404.19665   -368.25303   -280.09016    -13587.62    157.98219 
     140    40.499492    40.499492    40.499492    524.55929    624.56287    516.62741    432.48759   -13590.161    165.04874 
     150    40.517204    40.517204    40.517204   -417.15607   -331.43072    -392.3666   -527.67089   -13588.026    163.12514 
     160    40.503288    40.503288    40.503288     458.1773    453.68313    435.03292    485.81585   -13587.468    164.42148 
     170    40.516045    40.516045    40.516045   -136.72495   -187.37375   -179.43677   -43.364318   -13585.354    162.81477 
     180    40.506411    40.506411    40.506411    291.85031     243.0016    390.92261    241.62672    -13587.68    169.27591 
     190    40.517966    40.517966    40.517966   -229.10701   -206.11729   -168.92595    -312.2778   -13586.132    168.83681 
     200    40.511204    40.511204    40.511204    347.12344    336.27506    315.80787    389.28738   -13583.808    166.98237 
     210    40.517144    40.517144    40.517144   -345.55701   -371.17561   -314.08232   -351.41311     -13588.5    177.53171 
     220    40.515506    40.515506    40.515506    274.23494    244.86584    361.27811    216.56087   -13581.647    167.66073 
     230    40.520545    40.520545    40.520545   -306.40508   -291.29828   -333.25432   -294.66263   -13586.152    178.03796 
     240    40.515856    40.515856    40.515856    328.21642    196.37246    418.02748    370.24934   -13580.663     170.3453 
     250    40.519063    40.519063    40.519063     -174.106   -256.40656   -52.964215   -212.94724   -13584.576    179.45487 
     260     40.51845     40.51845     40.51845     161.2732    28.573379    296.65342     158.5928   -13580.526    174.46329 
     270    40.521742    40.521742    40.521742    14.589948   -144.72771    39.467889    149.02966   -13580.368    176.64334 
     280    40.523018    40.523018    40.523018   -2.0326787    14.672668     9.865671   -30.636375   -13580.285     178.7291 
     290    40.522011    40.522011    40.522011   -73.153051   -73.336411   -85.759064   -60.363679   -13582.245    184.60164 
     300    40.525877    40.525877    40.525877   -35.898096    95.357398   -147.95257   -55.099119   -13579.014    181.16394 
     310    40.526997    40.526997    40.526997   -38.083492   -74.818371    43.192576    -82.62468   -13578.212    181.90133 
     320    40.523539    40.523539    40.523539    128.15921    61.400935    241.52922    81.547465   -13578.435    184.46466 
     330    40.528713    40.528713    40.528713   -66.161856   -98.137125    46.242047   -146.59049   -13576.793    183.70675 
     340    40.527016    40.527016    40.527016   -107.78762   -190.11371    39.085288   -172.33443   -13579.333    190.59628 
     350    40.529409    40.529409    40.529409   -84.211486    -117.5496    -80.46083   -54.624027   -13577.271    189.24916 
     360    40.528619    40.528619    40.528619    36.205384    115.04293   0.98675154   -7.4135328   -13576.269    189.70014 
     370    40.532931    40.532931    40.532931   -235.77405    -306.6225   -271.25084   -129.44882   -13576.854    193.08046 
     380    40.532014    40.532014    40.532014    82.115029    34.605736    69.087855     142.6515   -13573.525    189.52826 
     390     40.53468     40.53468     40.53468   -110.77001   -109.45228   -80.298717   -142.55903   -13574.013    192.49863 
     400    40.531016    40.531016    40.531016    97.477177    159.08463    -20.80147    154.14838   -13574.208    195.11394 
     410    40.538006    40.538006    40.538006    76.681301    24.836946    120.00082    85.206142   -13568.646    187.42172 
     420    40.533384    40.533384    40.533384    32.084885   -13.425015    253.00783   -143.32815   -13573.025    197.36268 
     430    40.536677    40.536677    40.536677   -171.72035     -294.829    7.3030001   -227.63506   -13573.122    199.66596 
     440    40.537304    40.537304    40.537304    47.702582    116.25295    72.744989   -45.890191   -13570.279    196.94665 
     450    40.539369    40.539369    40.539369    10.526774   -29.172047    61.413728  -0.66136001   -13569.188    197.29781 
     460    40.539608    40.539608    40.539608    64.212981    77.110421    23.372052     92.15647   -13568.294    197.83806 
     470     40.53823     40.53823     40.53823    76.712113    113.61175    191.96032   -75.435726   -13569.508    202.23301 
     480    40.543436    40.543436    40.543436   -91.957838   -75.076398   -117.47166   -83.325452   -13568.232    202.37824 
     490    40.545895    40.545895    40.545895   -162.79627   -144.22135   -171.52746   -172.64002   -13567.321    202.98312 
     500    40.539956    40.539956    40.539956    72.719692    177.21129    146.92322   -105.97543   -13568.452    206.97981 
     510    40.545759    40.545759    40.545759   -100.85326   -127.86243   -103.20136   -71.495995   -13565.921    204.59555 
     520    40.543033    40.543033    40.543033    93.776752    3.7841282    173.14541    104.40071   -13566.433    207.98109 
     530    40.549353    40.549353    40.549353   -168.65664   -184.17431   -166.62009   -155.17552    -13564.69    207.01641 
     540    40.544622    40.544622    40.544622    156.29832    38.271112    166.51902    264.10482   -13564.093    208.16878 
     550    40.548376    40.548376    40.548376   -59.975501   -5.2820967   -60.645671   -113.99874    -13564.04    210.21523 
     560    40.548349    40.548349    40.548349    157.34745    105.34122    242.30669    124.39443   -13561.584     208.1491 
     570    40.552569    40.552569    40.552569   -111.13056   -166.63438    46.021173   -212.77846   -13562.023    211.10142 
     580    40.547796    40.547796    40.547796    141.13917    5.9977816    169.44665     247.9731   -13562.417    213.90592 
     590    40.554747    40.554747    40.554747   -310.61881   -460.95213   -122.09082   -348.81347   -13563.263    217.52668 
     600    40.549955    40.549955    40.549955    107.32816    -54.53983    122.15053    254.37378   -13561.079    215.68237 
     610    40.553766    40.553766    40.553766   -83.229385    -28.62329   -107.19553   -113.86934   -13560.878    217.53392 
     620    40.554397    40.554397    40.554397    113.70686    104.08427    95.953609    141.08271   -13557.713    214.07442 
     630    40.554945    40.554945    40.554945    72.669255   -4.3048208    123.27699      99.0356   -13558.231    217.22952 
     640    40.557676    40.557676    40.557676   -89.832363   -62.135354    -90.15773   -117.20401   -13558.733    220.37062 
     650    40.557898    40.557898    40.557898   -55.716704    21.075898   -45.199231   -143.02678   -13558.366    221.83271 
     660    40.558386    40.558386    40.558386  -0.76211287    56.614229   -113.90569    55.005123   -13556.592    220.61937 
     670      40.5591      40.5591      40.5591    70.645272    89.682534    52.552895    69.700387   -13554.731    219.31614 
     680    40.559499    40.559499    40.559499   -28.398636    -32.44886    98.813184   -151.56023    -13556.73     224.9914 
     690     40.56052     40.56052     40.56052    26.108701    254.11198   -65.558284   -110.22759   -13554.724    223.47034 
     700    40.561773    40.561773    40.561773    7.5662373   -33.779193   -10.670367    67.148272   -13554.203    224.64093 
     710    40.561895    40.561895    40.561895   -95.109175   -15.132604   -126.42569   -143.76923   -13556.075    230.11928 
     720    40.563302    40.563302    40.563302    129.66912    96.283115    211.56594    81.158317   -13551.848    224.69644 
     730    40.565701    40.565701    40.565701   -174.20935   -184.42701   -186.44102   -151.76001   -13554.709    231.95905 
     740    40.565912    40.565912    40.565912    -9.630026    117.36885   -82.612495   -63.646432   -13552.401    229.80306 
     750     40.56693     40.56693     40.56693   -160.41865    -161.8925   -142.28091   -177.08255   -13553.822    234.36407 
     760    40.567199    40.567199    40.567199   -73.982374     73.86794   -48.384312   -247.43075   -13552.238    233.55179 
     770      40.5675      40.5675      40.5675   -25.357575    26.934853   -17.765425   -85.242151   -13551.341    233.91095 
     780    40.568846    40.568846    40.568846   -159.58851   -86.049238   -22.443759   -370.27254    -13552.22    237.67142 
     790    40.572012    40.572012    40.572012   -158.00933   -155.10527   -216.41591   -102.50681   -13549.315    234.23715 
     800    40.566504    40.566504    40.566504    228.14699    247.46729    157.70472    279.26896    -13548.79    235.33098 
     810    40.575043    40.575043    40.575043   -193.86665   -229.27063   -25.658703   -326.67063   -13547.874    235.67629 
     820    40.569276    40.569276    40.569276    124.47669    204.67514    75.661733    93.093205   -13548.025    237.80146 
     830    40.574151    40.574151    40.574151   -137.78501   -91.046189   -161.20004    -161.1088   -13548.204    240.18385 
     840    40.575523    40.575523    40.575523   -110.42973   -93.548486   -240.94058    3.1998905   -13546.757    239.58673 
     850    40.571152    40.571152    40.571152    317.80884    357.91748    283.69802    311.81102   -13544.062    236.39376 
     860    40.577267    40.577267    40.577267    -11.51713    43.420477   -25.682399   -52.289468    -13543.34    236.93971 
     870    40.571769    40.571769    40.571769    225.90838     194.0677     157.3118    326.34563   -13545.591    243.18023 
     880    40.582126    40.582126    40.582126   -299.35275   -268.00014   -458.74356   -171.31456   -13544.377    242.69151 
     890    40.573576    40.573576    40.573576    212.57905    429.47242    83.362904    124.90181   -13544.464    244.89857 
     900    40.581468    40.581468    40.581468   -161.22103   -142.81111   -275.14339   -65.708583   -13542.773    243.64834 
     910    40.577547    40.577547    40.577547    177.74588    138.90418    134.07226     260.2612   -13541.889    243.87966 
     920    40.581496    40.581496    40.581496   -167.66363   -188.49418   -233.60235   -80.894353    -13543.13    247.90187 
     930     40.58067     40.58067     40.58067   -27.791354    57.196889   -80.986885   -59.584067   -13542.662    249.03403 
     940    40.582111    40.582111    40.582111   -89.449735   -41.821855   -202.15065   -24.376702   -13542.343    250.14103 
     950    40.580268    40.580268    40.580268    185.26005    170.67909    257.96401    127.13703   -13540.168    248.05856 
     960    40.585883    40.585883    40.585883   -257.16903   -255.67058   -273.40708   -242.42941   -13541.789    252.75022 
     970    40.580888    40.580888    40.580888    285.69799    398.98306     186.7696    271.34132   -13538.606    248.80222 
     980    40.587668    40.587668    40.587668   -218.17928   -360.99466   -160.55896   -132.98422    -13539.97    252.85086 
     990    40.582011    40.582011    40.582011    212.19737    149.49496    239.91183    247.18532   -13538.799    252.77074 
    1000    40.592334    40.592334    40.592334   -417.24029   -382.10367   -635.97496   -233.64225   -13539.409    255.52027 
Loop time of 18.8451 on 1 procs for 1000 steps with 4000 atoms

Performance: 45.848 ns/day, 0.523 hours/ns, 53.064 timesteps/s
98.2% CPU use with 1 MPI tasks x 1 OpenMP threads

MPI task timing breakdown:
Section |  min time  |  avg time  |  max time  |%varavg| %total
---------------------------------------------------------------
Pair    | 18.201     | 18.201     | 18.201     |   0.0 | 96.58
Neigh   | 0          | 0          | 0          |   0.0 |  0.00
Comm    | 0.056946   | 0.056946   | 0.056946   |   0.0 |  0.30
Output  | 0.35275    | 0.35275    | 0.35275    |   0.0 |  1.87
Modify  | 0.19472    | 0.19472    | 0.19472    |   0.0 |  1.03
Other   |            | 0.03995    |            |       |  0.21

Nlocal:    4000 ave 4000 max 4000 min
Histogram: 1 0 0 0 0 0 0 0 0 0
Nghost:    10895 ave 10895 max 10895 min
Histogram: 1 0 0 0 0 0 0 0 0 0
Neighs:    640000 ave 640000 max 640000 min
Histogram: 1 0 0 0 0 0 0 0 0 0
FullNghs:  0 ave 0 max 0 min
Histogram: 1 0 0 0 0 0 0 0 0 0

Total # of neighbors = 640000
Ave neighs/atom = 160
Neighbor list builds = 0
Dangerous builds = 0
unfix 1

# Store final cell length for strain calculations
variable tmp equal "lx"
variable L0 equal ${tmp}
variable L0 equal 40.592333713924
print "Initial Length, L0: ${L0}"
Initial Length, L0: 40.592333713924

######################################
# DEFORMATION
reset_timestep	0

fix		1 all npt temp 300 300 1 y 0 0 1 z 0 0 1 drag 1
variable srate equal 1.0e10
variable srate1 equal "v_srate / 1.0e12"
fix		2 all deform 1 x erate ${srate1} units box remap x
fix		2 all deform 1 x erate 0.01 units box remap x

# Output strain and stress info to file
# for units metal, pressure is in [bars] = 100 [kPa] = 1/10000 [GPa]
# p2, p3, p4 are in GPa
variable strain equal "(lx - v_L0)/v_L0"
variable p1 equal "v_strain"
variable p2 equal "-pxx/10000"
variable p3 equal "-pyy/10000"
variable p4 equal "-pzz/10000"
#fix def1 all print 100 "${p1} ${p2} ${p3} ${p4}" file Al_SC_100.def1.txt screen no

fix extra all print 10 "Coords of marker atom = ${c_t}" file coord.txt

# Use cfg for AtomEye
dump 		1 all cfg 250 dump.tensile_*.cfg mass type xs ys zs c_csym c_peratom fx fy fz
dump_modify 1 element Al

# Display thermo
thermo 	1000
thermo_style	custom step v_strain temp v_p2 v_p3 v_p4 ke pe press

run		1000
Per MPI rank memory allocation (min/avg/max) = 13.27 | 13.27 | 13.27 Mbytes
Step v_strain Temp v_p2 v_p3 v_p4 KinEng PotEng Press 
       0 -5.2513074e-016    255.52027  0.038210367  0.063597496  0.023364225    132.08132   -13539.409   -417.24029 
